

   *************************************************************************
         <<<     CCCCCC     CCCCCC   |||     CCCCCC     CCCCCC   >>>
       <<<      CCC        CCC       |||    CCC        CCC         >>>
      <<<      CCC        CCC        |||   CCC        CCC            >>>
    <<<        CCC        CCC        |||   CCC        CCC              >>>
      <<<      CCC        CCC        |||   CCC        CCC            >>>
       <<<      CCC        CCC       |||    CCC        CCC         >>>
         <<<     CCCCCC     CCCCCC   |||     CCCCCC     CCCCCC   >>>
   *************************************************************************

     ****************************************************************
     * CFOUR Coupled-Cluster techniques for Computational Chemistry *
     ****************************************************************
 

   Department of Chemistry                Institut fuer Physikalische Chemie
   University of Texas at Austin          Universitaet Mainz
   Austin, TX  78712, USA                 D-55099 Mainz, Germany
 
                       Version 1.2
 
                     compute-0-0.local                                 
                     Tue Mar  9 12:36:30 CST 2021                      
                     integer*8 version is running
 
********************************************************************************
*                          Input from ZMAT file                                *
********************************************************************************
HN3 VPT2, five-zeta                                                             
H                                                                               
N 1 B1                                                                          
N 2 B2 1 A1                                                                     
N 3 B3 2 A2 1 D180                                                              
                                                                                
B1=1.0154278413192974                                                           
B2=1.2409751660817754                                                           
B3=1.1294774359495603                                                           
A1=109.06378226505528                                                           
A2=171.725812976279                                                             
D180=180.0                                                                      
                                                                                
*CFOUR(CALC=CCSD(T)                                                             
BASIS=cc-pCV5Z                                                                  
VIB=FINDIF                                                                      
FREQ_ALGORITHM=PARALLEL                                                         
FD_PROJECT=OFF                                                                  
ANH_ALGORITHM=PARALLEL                                                          
ANHARM=VPT2                                                                     
ABCDTYPE=AOBASIS                                                                
CC_PROG=NCC                                                                     
FCGRADNEW=2                                                                     
SCF_CONV=9                                                                      
CC_CONV=9                                                                       
LINEQ_CONV=9                                                                    
LINEQ_MAXCYC=200                                                                
MULT=1                                                                          
FROZEN_CORE=OFF                                                                 
MEM_UNIT=GB                                                                     
MEM=48)                                                                         
                                                                                
********************************************************************************
    -------------------------------------------------------------------
                    CFOUR Control Parameters 
    -------------------------------------------------------------------
        External           Internal           Value            Units
          Name               Name
    -------------------------------------------------------------------
       ABCDTYPE             IABCDT         AOBASIS     [  2]    ***   
       ANHARMONIC           IANHAR         VPT2        [  1]    ***   
       ANH_ALGORIT          IANALG         PARALLEL    [  1]    ***   
       ANH_DERIVAT          IANDER         SECOND      [  1]    ***   
       ANH_MODE             ANHMOD         VIBRATION   [  0]    ***   
       ANH_POINTS           IANPOI              1               ***   
       ANH_STEPSIZ          ICUBST             50000          x 10-6  
       ANH_SYMMETR          IANHSM         ABELIAN     [  0]    ***   
       AO_LADDERS           IAOLAD         SINGLEPASS  [  1]    ***   
       AV_SCF               IAVSCF         OFF         [  0]    ***   
       BASIS                IBASIS         PCV5Z       [ 26]    ***   
       BFIELD               IBFIEL         OFF         [  0]    a.u.  
       BOTHVECTORS          BOTHVC         OFF         [  0]    ***   
       BOX_POTENT           IPIAB          OFF         [  0]    ***   
       BREIT                IBREIT         OFF         [  0]    ***   
       BRUCK_CONV           IBRTOL          10D-  4             ***   
       BRUECKNER            IBRKNR         OFF         [  0]    ***   
       BUFFERSIZE           IBUFFS              4096            ***   
       CACHE_RECS           ICHREC             10               ***   
       CALCLEVEL            ICLLVL         CCSD(T)     [ 22]    ***   
       CAS_GECCO            ICMRCC         OFF         [  0]    ***   
       CAS_GUESS            ICGUES         CANONICAL   [  0]    ***   
       CAS_INPUT            ICSINP         ORBITALS    [  0]    ***   
       CAS_ITMAX            ICITMX          10D- 50           cycles  
       CAS_JACDAV           ICJDAV         OFF         [  0]    ***   
       CAS_MICMAX           ICMIMN          10D- 10             ***   
       CAS_MICMIN           ICMIMX          10D-  2             ***   
       CAS_MICRO            ICSALG         ILU/JACOBI  [  0]    ***   
       CAS_MITMAX           ICMIMX          10D-100           cycles  
       CAS_MMAX             ICMMAX          10D- 50             ***   
       CAS_PRINT            ICPRT           10D-  0             ***   
       CCORBOPT             ICCORB         OFF         [  0]  x 0.01  
       CC_CONV              ICCCNV          10D-  9             ***   
       CC_EXPORDER          ICCEOR              5               ***   
       CC_EXTRAPOL          ICCEXT         DIIS        [  1]    ***   
       CC_GUESS             ICCGES         MP2         [  0]    ***   
       CC_MAXCYC            ICCCYC            100              cycles 
       CC_PROGRAM           ICCPRO         NCC         [  5]    ***   
       CHARGE               ICHRGE              0               ***   
       CHOLESKY             ICHOLE         OFF         [  0]    ***   
       CIS_CONV             ICISTL              5               ***   
       COMM_SIZE            IPSIZE            ***               ***   
       CONSTANT             ICONST         OLD         [  1]    ***   
       CONTINUUM            ICONTU         NONE        [  0]    ***   
       CONTRACTION          ICNTYP         GENERAL     [  1]    ***   
       COORDINATES          ICOORD         INTERNAL    [  0]    ***   
       CPHF_CONVER          ICPHFT          10D- 16             ***   
       CPHF_MAXCYC          ICPHFC             64              cycles 
       CUBIC                ICUBIC         OFF         [  0]    ***   
       CURVILINEAR          ICURVY         OFF         [  0]    ***   
       CV_ELEMENT           ICVELM              0               ***   
       CV_ORBITALS          ICVORB      NONE         
       CV_SEPARATE          ICVSEP         OFF         [  0]    ***   
       DBOC                 IDBOC          OFF         [  0]    ***   
       DCT                  IDCT           OFF         [  0]    ***   
       DERIV_LEV            IDRLVL         FIRST       [  1]    ***   
       DEVMEM_SIZE          IDVMEM         *********           MByte  
       DIAG_MRCC            IEOMST          10D-  0             ***   
       DIFF_TYPE            IDIFTY         RELAXED     [  0]    ***   
       DIRECT               IDIRCT         OFF         [  0]    ***   
       DROPMO               IDRPMO      NONE         
       ECP                  IECP           OFF         [  0]    ***   
       EIGENVECTOR          IVEC                1               ***   
       EL_ANHARM            IELANH         OFF         [  0]    ***   
       EOMFOLLOW            IEOMSR         ENERGY      [  0]    ***   
       EOMIP                IEOMIP         OFF         [  0]    ***   
       EOMLEVEL             HBARFM         SAME        [  0]    ***   
       EOM_MRCC             IMRCCE         NEW         [  1]    ***   
       EOM_NONIT            EOMNON         OFF         [  0]    ***   
       EOM_NSING            IEOMSI          10D-  0             ***   
       EOM_NSTATES          IMRCCD         DAVIDSON    [  0]    ***   
       EOM_NTRIP            IEOMTR          10D-  0             ***   
       EOM_ORDER            IEXORD         ENERGY      [  0]    ***   
       EOM_PROPSTA          IEOMST              0               ***   
       ESTATE_CONV          IEXTOL          10D-  5             ***   
       ESTATE_DIAG          IEXDIG         ITERATIVE   [  0]    ***   
       ESTATE_LOCK          IESLOC         ON          [  1]    ***   
       ESTATE_MAXC          IEXMXC             40               ***   
       ESTATE_PROP          IEXPRP         OFF         [  0]    ***   
       EVAL_HESS            IRECAL              0            # of cyc.
       EXCITATION           IEXCIT              0               ***   
       EXCITE               IEXCIT         NONE        [  0]    ***   
       EXTERN_POT           IEXPOT         OFF         [  0]    ***   
       FCGRADNEW            IFCGNW         OFF         [  0]    ***   
       FC_FIELD             IFINFC              0             x 10-6  
       FD_CALTYPE           IFDCAL         GRADONLY    [  0]    ***   
       FD_PROJECT           IFDPRJ         OFF         [  1]    ***   
       FD_STEPSIZE          IDISFD              5            10-4 bohr
       FD_USEGROUP          IFDGRP         FULL        [  0]    ***   
       FILE_RECSIZ          IFLREC              4096           words  
       FINITE_PERT          IFIPER              0             x 10-6  
       FIXGEOM              IFIXGM         OFF         [  0]    ***   
       FOCK                 IFOCK          AO          [  1]    ***   
       FREQ_ALGORI          IVIALG         PARALLEL    [  1]    ***   
       FROZEN_CORE          IFROCO         OFF         [  0]    ***   
       FROZEN_VIRT          IFROVI         OFF         [  0]    ***   
       GAMMA_ABCD           IGABCD         DIRECT      [  1]    ***   
       GAMMA_ABCI           IGABCI         STORE       [  0]    ***   
       GENBAS_1             IGNBS1              0               ***   
       GENBAS_2             IGNBS2              0               ***   
       GENBAS_3             IGNBS3              0               ***   
       GENBAS_4             IGNBS4              0               ***   
       GEO_CONV             ICONTL              5              H/bohr 
       GEO_MAXCYC           IOPTCY             50               ***   
       GEO_MAXSTEP          IMXSTP            300            millibohr
       GEO_METHOD           INR            SINGLE_POINT[  5]    ***   
       GIAO                 IGIAO          OFF         [  1]    ***   
       GIMIC                IGIMIC         OFF         [  0]    ***   
       GRID                 IGRID          OFF         [  0]    ***   
       GRID_ALGO            IGALGO         SERIAL      [  0]    ***   
       GUESS                IGUESS         MOREAD      [  0]    ***   
       HBAR                 IHBAR          OFF         [  0]    ***   
       HESS_TYPE            IHESTP         SCF         [  0]    ***   
       HF2_FILE             IHF2Fl         USE         [  1]    ***   
       HFSTABILITY          ISTABL         OFF         [  0]    ***   
       INCORE               INCORE         OFF         [  0]    ***   
       INPUT_MRCC           IMRCC          ON          [  1]    ***   
       INTEGRALS            INTTYP         VMOL        [  1]    ***   
       JODA_PRINT           IJPRNT              0               ***   
       KEYWORD_OUT          IDMPKW         NO          [  0]    ***   
       LINDEP_TOL           ILINDP              8               ***   
       LINEQ_CONV           IZTACN          10D-  9           cycles  
       LINEQ_EXPOR          ILMAXD              5               ***   
       LINEQ_MAXCY          ILMAXC            200               ***   
       LINEQ_TYPE           ILTYPE         DIIS        [  1]    ***   
       LOCK_ORBOCC          ILOCOC         OFF         [  0]    ***   
       MEMORY_SIZE          IMEMSZ         *********           words  
       MEM_UNIT             IMEMU          GB          [  3]    ***   
       MRCC                 IMRCCC         OFF         [  0]    ***   
       MULTIPLICTY          IMULTP              1               ***   
       NACOUPLING           IVCOUP         OFF         [  0]    ***   
       NEGEVAL              IDIE           ABORT       [  0]    ***   
       NEWNORM              INEWNO         OFF         [  0]    ***   
       NON-HF               INONHF         OFF         [  0]    ***   
       NTOP_TAMP            ITOPT2             15               ***   
       NUC_MODEL            INUCMO         POINT       [  0]    ***   
       OCCUPATION           IOCCU   ESTIMATED BY SCF 
       OPEN-SHELL           IOPEN          SPIN-ORBITAL[  0]    ***   
       OPTVIB               IOPTVB         OFF         [  0]    ***   
       ORBITALS             IORBTP         STANDARD    [  0]    ***   
       PARALLEL             IPARAL         ON          [  1]    ***   
       PARA_INT             IPINTS         ON          [  1]    ***   
       PARA_PRINT           IPPRIN              0               ***   
       PERT_ORB             IPTORB         CANONICAL   [  1]    ***   
       POINTS               IGRDFD              0               ***   
       PRINT                IPRNT               0               ***   
       PROPS                IPROPS         OFF         [  0]    ***   
       PROP_INTEGR          IINTYP         INTERNAL    [  0]    ***   
       PSI                  IPSI           OFF         [  0]    ***   
       QC_ALG               IQCALG         FLM         [  0]    ***   
       QC_LINALG            IQCLIN         TRIDIAG     [  2]    ***   
       QC_MAXCYC            IQCMAX            100             cycles  
       QC_MAXSCFCY          IQCMSC             20             cycles  
       QC_RTRUST            IQCRTR          10D-  0           x 10-3  
       QC_SKIPSCF           IQCSKI         OFF         [  0]    ***   
       QC_START             IQCSTA          10D-  3             ***   
       QRHFGUESS            IQGUES         OFF         [  0]    ***   
       QUARTIC              IQUART         OFF         [  0]    ***   
       RAMAN_INT            IRAMIN         OFF         [  0]    ***   
       RAMAN_ORB            IRAMRE         UNRELAXED   [  0]    ***   
       RDO                  IRDOFM         ON          [  1]    ***   
       REDUCE_REPR          REDREP         Ir          [  0]    ***   
       REFERENCE            IREFNC         RHF         [  0]    ***   
       RELATIVIST           IRELAT         OFF         [  0]    ***   
       RELAX_DENS           IRDENS         ON          [  1]    ***   
       RESET_FLAGS          IRESET         OFF         [  0]    ***   
       RESTART_CC           ICCRES         OFF         [  0]    ***   
       ROT_EVEC             ROTVEC              0               ***   
       SAVE_INTS            ISVINT         OFF         [  0]    ***   
       SCALE_ON             ISTCRT              0               ***   
       SCF_CONV             ISCFCV          10D-  9             ***   
       SCF_DAMPING          IDAMP               0             x 10-3  
       SCF_EXPORDE          IRPPOR             10               ***   
       SCF_EXPSTAR          IRPPLS              2               ***   
       SCF_EXTRAPO          IRPP           ON          [  1]    ***   
       SCF_MAXCYC           ISCFCY            150              cycles 
       SCF_NOSTOP           ISCFST         OFF         [  0]    ***   
       SCF_ORBITAL          ISCFOR         REAL        [  0]    ***   
       SCF_PRINT            ISCFPR              0               ***   
       SCF_PROG             ISCFPR         SCF         [  0]    ***   
       SD_FIELD             IFINSD              0             x 10-6  
       SOPERT               IPERSO         OFF         [  0]    ***   
       SPHERICAL            IDFGHI         ON          [  1]    ***   
       SPINORBIT            ISOCAL         OFF         [  0]    ***   
       SPINROTATIO          ISRCON         OFF         [  0]    ***   
       SPIN_FLIP            ISPFLP         OFF         [  0]    ***   
       SPIN_ORBIT           ISPORB         OFF         [  0]    ***   
       SPIN_SCAL            ISCSMP         OFF         [  0]    ***   
       STEEPSCALE           ISTPSC              1000          x 10-3  
       SUBGROUP             ISUBGP         DEFAULT     [  0]    ***   
       SUBGRPAXIS           ISBXYZ         X           [  0]    ***   
       SYMMETRY             ISYM           ON          [  0]    ***   
       SYM_CHECK            ISYMCK         OVERRIDE    [  1]    ***   
       T3_EXTRAPOL          IT3EXT         OFF         [  0]    ***   
       T4_EXTRAPOL          IT4EXP         OFF         [  0]    ***   
       TAMP_SUM             IEVERY              5               ***   
       TESTSUITE            ITESTS         OFF         [  0]    ***   
       THERMOCH             ITHERM         OFF         [  0]    ***   
       TOL_CHOLESK          ITOLCH          10D-  4             ***   
       TRANGRAD             IRESRM         OFF         [  0]    ***   
       TRANS_INV            ITRAIN         USE         [  0]    ***   
       TREAT_PERT           ITREAT         SIMULTANEOUS[  0]    ***   
       TRIP_ALGORI          ITRALG         NORMAL      [  0]    ***   
       UIJ_THRESHO          IUIJTH              1               ***   
       UNITS                IUNITS         ANGSTROM    [  0]    ***   
       UNOS                 IUNOS          OFF         [  0]    ***   
       UPDATE_HESS          IHUPDT         ON          [  1]    ***   
       VIBPHASE             ISETPH         STANDARD    [  0]    ***   
       VIBRATION            IVIB           FINDIF      [  3]    ***   
       VIB_ALGORIT          IGEALG         STANDARD    [  0]    ***   
       VNATORB              IVNORB         OFF         [  0]    ***   
       VTRAN                IVTRAN         PARTIAL     [  2]    ***   
       X2CKEY               IX2CKE         MOLVDINT    [  0]    ***   
       XFIELD               IXEFLD              0             x 10-6  
       XFORM_TOL            IXFTOL          10D- 11             ***   
       YFIELD               IYEFLD              0             x 10-6  
       ZFIELD               IZEFLD              0             x 10-6  
       ZSCALE_EXP           IZEXPS         OFF         [  0]    ***   
    -------------------------------------------------------------------
   4 entries found in Z-matrix 
   Job Title : HN3 VPT2, five-zeta                                                             
   There are  6 unique internal coordinates.
   Of these,  0 will be optimized.
   User supplied Z-matrix: 
--------------------------------------------------------------------------------
       SYMBOL    BOND      LENGTH    ANGLE     ANGLE     DIHED     ANGLE
                  TO      (ANGST)    WRT      (DEG)      WRT      (DEG)
--------------------------------------------------------------------------------
        H    
        N          1         B1   
        N          2         B2         1        A1   
        N          3         B3         2        A2         1        D180 
                  *Initial values for internal coordinates* 
                      Name             Value
                        B1              1.0154278413
                        B2              1.2409751661
                        A1            109.0637822651
                        B3              1.1294774359
                        A2            171.7258129763
                        D180          180.0000000000
--------------------------------------------------------------------------------
Line Symbol    AtNr   At. Mass
  1  H          1     1.00783
  2  N          7    14.00307
  3  N          7    14.00307
  4  N          7    14.00307
                     1                     4                     6
  -1.00000000000000       0.143910383796732       0.945155563915466     
  R VECTOR before symmetry
  0.000000000000000E+000  0.000000000000000E+000  0.000000000000000E+000
   1.91888092156538       0.000000000000000E+000  0.000000000000000E+000
   2.34510368283468        1.90352209520341       0.000000000000000E+000
   2.13440346520959        2.99718084710007        3.14159265358979     
   Rotational constants (in cm-1): 
          0.3961358294             0.4040117457            20.3206232422
   Rotational constants (in MHz): 
      11875.8550630208         12111.9691269639        609197.0443331272
********************************************************************************
   The full molecular point group is Cs  .
   The largest Abelian subgroup of the full molecular point group is Cs  .
   The computational point group is Cs  .
********************************************************************************
  R VECTOR 
  0.000000000000000E+000  0.000000000000000E+000  0.000000000000000E+000
   1.91888092156538       0.000000000000000E+000  0.000000000000000E+000
   2.34510368283468        1.90352209520341       0.000000000000000E+000
   2.13440346520959        2.99718084710007        3.14159265358979     
--------------------------------------------------------------------------------
   Analysis of internal coordinates specified by Z-matrix 
--------------------------------------------------------------------------------
   *The nuclear repulsion energy is   61.748337773300442 a.u.
   *There are   5 degrees of freedom within the tot. symm. molecular subspace.
   *Z-matrix requests optimization of   0 coordinates.
   *The optimization is constrained.
   *The following   5 parameters can have non-zero 
    derivatives within the totally symmetric subspace:
             A2   [ 5]  A1   [ 3]  B1   [ 1]  B2   [ 2]  B3   [ 4]
   *The following   0 parameters are to be optimized:

   *The following coordinates must be varied in an  unconstrained optimization.
             A2   [ 5]  A1   [ 3]  B1   [ 1]  B2   [ 2]  B3   [ 4]
--------------------------------------------------------------------------------


 ----------------------------------------------------------------
         Coordinates used in calculation (QCOMP) 
 ----------------------------------------------------------------
 Z-matrix   Atomic            Coordinates (in bohr)
  Symbol    Number           X              Y              Z
 ----------------------------------------------------------------
     H         1        -3.00315745     1.57186563    -0.00000000
     N         7        -2.19398149    -0.16805916    -0.00000000
     N         7         0.13879361     0.07209000    -0.00000000
     N         7         2.27133023    -0.01716069     0.00000000
 ----------------------------------------------------------------
 
   Interatomic distance matrix (Angstroms) 
 
                 H             N             N             N    
                [ 1]        [ 2]        [ 3]        [ 4]
  H    [ 1]     0.00000
  N    [ 2]     1.01543     0.00000
  N    [ 3]     1.84236     1.24098     0.00000
  N    [ 4]     2.91505     2.36429     1.12948     0.00000
   Rotational constants (order x, y, z, in cm-1): 
         20.3206232422             0.4040117457             0.3961358294
   Rotational constants (order x, y, z, in MHz): 
     609197.0443331341         12111.9691269639         11875.8550630209
  ECPDATA file not present.   Using default ECPDATA. 
  There are  490 basis functions.
 @GEOPT-W, Archive file not created for single-point calculation.
 @CHECKOUT-I, Total execution time (CPU/WALL):         0.30/       0.36 seconds.
 @GETMEM-I,  Allocated   45776 MB of main memory.
  @SYMCOR-I, Full point group is dangerous! Abelian subgroup will be used.
  @CHRTABLE-I, There are   2 unique irreducible representations.
  @CHRTABLE-I, There are   2 unique irreducible representations.
  @VIBINF-I, Symmetries species for nuclear motions:
  Irrep     Label    Total    Vibrations     Translations     Rotations
    1         A'      8.00       5.00            2.00            1.00
    2         A''     4.00       1.00            1.00            2.00
   Total number of calculations required      :    15
   Number of single-point energy calculations :     0
   Number of energy gradient     calculations :    15
  atom charge vector                      1                     7
                     7                     7
  List of displaced geometries used in the calculation 
 
  Displaced point   1:
H        -3.0026652662        1.5718656285       -0.0000000000
N        -2.1939933012       -0.1680591567       -0.0000000000
N         0.1387817982        0.0720900028       -0.0000000000
N         2.2713184255       -0.0171606868        0.0000000000
 
  Displaced point   2:
H        -3.0036496387        1.5718656285       -0.0000000000
N        -2.1939696856       -0.1680591567       -0.0000000000
N         0.1388054138        0.0720900028       -0.0000000000
N         2.2713420411       -0.0171606868        0.0000000000
 
  Displaced point   3:
H        -3.0031574525        1.5723578148       -0.0000000000
N        -2.1939814934       -0.1680709646       -0.0000000000
N         0.1387936060        0.0720781949       -0.0000000000
N         2.2713302333       -0.0171724946        0.0000000000
 
  Displaced point   4:
H        -3.0031574525        1.5713734423       -0.0000000000
N        -2.1939814934       -0.1680473489       -0.0000000000
N         0.1387936060        0.0721018106       -0.0000000000
N         2.2713302333       -0.0171488790        0.0000000000
 
  Displaced point   5:
H        -3.0031574525        1.5718656285       -0.0000000000
N        -2.1938723964       -0.1680591567       -0.0000000000
N         0.1387390575        0.0720900028       -0.0000000000
N         2.2712756848       -0.0171606868        0.0000000000
 
  Displaced point   6:
H        -3.0031574525        1.5718656285       -0.0000000000
N        -2.1940905904       -0.1680591567       -0.0000000000
N         0.1388481545        0.0720900028       -0.0000000000
N         2.2713847818       -0.0171606868        0.0000000000
 
  Displaced point   7:
H        -3.0031574525        1.5718656285       -0.0000000000
N        -2.1939814934       -0.1679500598       -0.0000000000
N         0.1387936060        0.0720354543       -0.0000000000
N         2.2713302333       -0.0172152353        0.0000000000
 
  Displaced point   8:
H        -3.0031574525        1.5718656285       -0.0000000000
N        -2.1939814934       -0.1681682537       -0.0000000000
N         0.1387936060        0.0721445512       -0.0000000000
N         2.2713302333       -0.0171061383        0.0000000000
 
  Displaced point   9:
H        -3.0031574525        1.5718656285       -0.0000000000
N        -2.1939814934       -0.1680591567       -0.0000000000
N         0.1388880868        0.0720900028       -0.0000000000
N         2.2712357526       -0.0171606868        0.0000000000
 
  Displaced point  10:
H        -3.0031574525        1.5718656285       -0.0000000000
N        -2.1939814934       -0.1680591567       -0.0000000000
N         0.1386991253        0.0720900028       -0.0000000000
N         2.2714247140       -0.0171606868        0.0000000000
 
  Displaced point  11:
H        -3.0031574525        1.5718656285       -0.0000000000
N        -2.1939814934       -0.1680591567       -0.0000000000
N         0.1387936060        0.0721844835       -0.0000000000
N         2.2713302333       -0.0172551675        0.0000000000
 
  Displaced point  12:
H        -3.0031574525        1.5718656285       -0.0000000000
N        -2.1939814934       -0.1680591567       -0.0000000000
N         0.1387936060        0.0719955220       -0.0000000000
N         2.2713302333       -0.0170662060        0.0000000000
 
  Displaced point  13:
H        -3.0031574525        1.5718656285        0.0004921862
N        -2.1939814934       -0.1680591567       -0.0000118078
N         0.1387936060        0.0720900028       -0.0000118078
N         2.2713302333       -0.0171606868       -0.0000118078
 
  Displaced point  14:
H        -3.0031574525        1.5718656285       -0.0000000000
N        -2.1939814934       -0.1680591567        0.0001090970
N         0.1387936060        0.0720900028       -0.0000545485
N         2.2713302333       -0.0171606868       -0.0000545485
 
  Displaced point  15:
H        -3.0031574525        1.5718656285       -0.0000000000
N        -2.1939814934       -0.1680591567       -0.0000000000
N         0.1387936060        0.0720900028        0.0000944807
N         2.2713302333       -0.0171606868       -0.0000944807
 @CHECKOUT-I, Total execution time (CPU/WALL):         0.02/       0.07 seconds.
 @GETMEM-I,  Allocated   45776 MB of main memory.
 @CHECKOUT-I, Total execution time (CPU/WALL):         0.00/       0.00 seconds.
 @GETMEM-I,  Allocated   45776 MB of main memory.
  current energy   -164.779109951378     
  x is   0.000000000000000E+000
  x is   -1.00000000000000     
  x is   -1.00000000000000     
  x is  -2.858202446742730E-005
  x is  -2.854070473723436E-005
  x is  -0.999999999999999     
  x is  -0.999999999999999     
 @CHECKOUT-I, Total execution time (CPU/WALL):         0.01/       0.05 seconds.
 @GETMEM-I,  Allocated   45776 MB of main memory.
 @CHECKOUT-I, Total execution time (CPU/WALL):         0.00/       0.00 seconds.
 @GETMEM-I,  Allocated   45776 MB of main memory.
  current energy   -164.779109951267     
  x is   0.000000000000000E+000
  x is   -1.00000000000000     
  x is   -1.00000000000000     
  x is  -2.849882358912925E-005
  x is  -2.854011127728651E-005
  x is  -0.999999999999999     
  x is  -0.999999999999999     
 @CHECKOUT-I, Total execution time (CPU/WALL):         0.02/       0.05 seconds.
 @GETMEM-I,  Allocated   45776 MB of main memory.
 @CHECKOUT-I, Total execution time (CPU/WALL):         0.00/       0.00 seconds.
 @GETMEM-I,  Allocated   45776 MB of main memory.
  current energy   -164.779109922896     
  x is   0.000000000000000E+000
  x is   -1.00000000000000     
  x is   -1.00000000000000     
  x is  -2.850078148375346E-005
  x is  -2.857969567160445E-005
  x is  -0.999999999999999     
  x is  -0.999999999999999     
 @CHECKOUT-I, Total execution time (CPU/WALL):         0.01/       0.05 seconds.
 @GETMEM-I,  Allocated   45776 MB of main memory.
 @CHECKOUT-I, Total execution time (CPU/WALL):         0.00/       0.00 seconds.
 @GETMEM-I,  Allocated   45776 MB of main memory.
  current energy   -164.779109922848     
  x is   0.000000000000000E+000
  x is   -1.00000000000000     
  x is   -1.00000000000000     
  x is  -2.858006032435689E-005
  x is  -2.850114735719611E-005
  x is  -0.999999999999999     
  x is  -0.999999999999999     
 @CHECKOUT-I, Total execution time (CPU/WALL):         0.02/       0.06 seconds.
 @GETMEM-I,  Allocated   45776 MB of main memory.
 @CHECKOUT-I, Total execution time (CPU/WALL):         0.00/       0.00 seconds.
 @GETMEM-I,  Allocated   45776 MB of main memory.
  current energy   -164.779109960058     
  x is   0.000000000000000E+000
  x is   -1.00000000000000     
  x is   -1.00000000000000     
  x is  -2.852632697392110E-005
  x is  -2.854177885402986E-005
  x is  -0.999999999999999     
  x is  -0.999999999999999     
 @CHECKOUT-I, Total execution time (CPU/WALL):         0.01/       0.04 seconds.
 @GETMEM-I,  Allocated   45776 MB of main memory.
 @CHECKOUT-I, Total execution time (CPU/WALL):         0.00/       0.00 seconds.
 @GETMEM-I,  Allocated   45776 MB of main memory.
  current energy   -164.779109960031     
  x is   0.000000000000000E+000
  x is   -1.00000000000000     
  x is   -1.00000000000000     
  x is  -2.855449037808544E-005
  x is  -2.853903725452689E-005
  x is  -0.999999999999999     
  x is  -0.999999999999999     
 @CHECKOUT-I, Total execution time (CPU/WALL):         0.01/       0.04 seconds.
 @GETMEM-I,  Allocated   45776 MB of main memory.
 @CHECKOUT-I, Total execution time (CPU/WALL):         0.00/       0.00 seconds.
 @GETMEM-I,  Allocated   45776 MB of main memory.
  current energy   -164.779109965511     
  x is   0.000000000000000E+000
  x is   -1.00000000000000     
  x is   -1.00000000000000     
  x is  -2.845327922373908E-005
  x is  -2.872213070459484E-005
  x is  -0.999999999999999     
  x is  -0.999999999999999     
 @CHECKOUT-I, Total execution time (CPU/WALL):         0.02/       0.05 seconds.
 @GETMEM-I,  Allocated   45776 MB of main memory.
 @CHECKOUT-I, Total execution time (CPU/WALL):         0.00/       0.00 seconds.
 @GETMEM-I,  Allocated   45776 MB of main memory.
  current energy   -164.779109965483     
  x is   0.000000000000000E+000
  x is   -1.00000000000000     
  x is   -1.00000000000000     
  x is  -2.862767211708750E-005
  x is  -2.835926192990001E-005
  x is  -0.999999999999999     
  x is  -0.999999999999999     
 @CHECKOUT-I, Total execution time (CPU/WALL):         0.01/       0.06 seconds.
 @GETMEM-I,  Allocated   45776 MB of main memory.
 @CHECKOUT-I, Total execution time (CPU/WALL):         0.00/       0.00 seconds.
 @GETMEM-I,  Allocated   45776 MB of main memory.
  current energy   -164.779109946238     
  x is   0.000000000000000E+000
  x is   -1.00000000000000     
  x is   -1.00000000000000     
  x is  -2.854889185999188E-005
  x is  -2.854278244779351E-005
  x is  -0.999999999999999     
  x is  -0.999999999999999     
 @CHECKOUT-I, Total execution time (CPU/WALL):         0.01/       0.05 seconds.
 @GETMEM-I,  Allocated   45776 MB of main memory.
 @CHECKOUT-I, Total execution time (CPU/WALL):         0.00/       0.00 seconds.
 @GETMEM-I,  Allocated   45776 MB of main memory.
  current energy   -164.779109946117     
  x is   0.000000000000000E+000
  x is   -1.00000000000000     
  x is   -1.00000000000000     
  x is  -2.853192607998878E-005
  x is  -2.853803385838294E-005
  x is  -0.999999999999999     
  x is  -0.999999999999999     
 @CHECKOUT-I, Total execution time (CPU/WALL):         0.01/       0.04 seconds.
 @GETMEM-I,  Allocated   45776 MB of main memory.
 @CHECKOUT-I, Total execution time (CPU/WALL):         0.00/       0.00 seconds.
 @GETMEM-I,  Allocated   45776 MB of main memory.
  current energy   -164.779109967091     
  x is   0.000000000000000E+000
  x is   -1.00000000000000     
  x is   -1.00000000000000     
  x is  -2.870895188999967E-005
  x is  -2.885552651865630E-005
  x is  -0.999999999999999     
  x is  -0.999999999999999     
 @CHECKOUT-I, Total execution time (CPU/WALL):         0.01/       0.04 seconds.
 @GETMEM-I,  Allocated   45776 MB of main memory.
 @CHECKOUT-I, Total execution time (CPU/WALL):         0.00/       0.00 seconds.
 @GETMEM-I,  Allocated   45776 MB of main memory.
  current energy   -164.779109967095     
  x is   0.000000000000000E+000
  x is   -1.00000000000000     
  x is   -1.00000000000000     
  x is  -2.837235964459062E-005
  x is  -2.822701936544547E-005
  x is  -0.999999999999999     
  x is  -0.999999999999999     
 @CHECKOUT-I, Total execution time (CPU/WALL):         0.02/       0.05 seconds.
 @GETMEM-I,  Allocated   45776 MB of main memory.
 @CHECKOUT-I, Total execution time (CPU/WALL):         0.00/       0.00 seconds.
 @GETMEM-I,  Allocated   45776 MB of main memory.
  current energy   -164.779109968366     
  x is   0.000000000000000E+000
  x is  -0.999992925265049     
  x is  -0.999994801509172     
  x is  -2.854039525002072E-005
  x is  -2.854040800492896E-005
  x is  -0.999856269670570     
  x is  -0.999874309318700     
 @CHECKOUT-I, Total execution time (CPU/WALL):         0.01/       0.04 seconds.
 @GETMEM-I,  Allocated   45776 MB of main memory.
 @CHECKOUT-I, Total execution time (CPU/WALL):         0.00/       0.00 seconds.
 @GETMEM-I,  Allocated   45776 MB of main memory.
  current energy   -164.779109968234     
  x is   0.000000000000000E+000
  x is  -0.999989929009913     
  x is  -0.999975984589740     
  x is  -2.854041649202887E-005
  x is  -2.854040800492896E-005
  x is  -0.999795397756403     
  x is  -0.999694310013188     
 @CHECKOUT-I, Total execution time (CPU/WALL):         0.02/       0.05 seconds.
 @GETMEM-I,  Allocated   45776 MB of main memory.
 @CHECKOUT-I, Total execution time (CPU/WALL):         0.00/       0.00 seconds.
 @GETMEM-I,  Allocated   45776 MB of main memory.
  current energy   -164.779109967180     
  x is   0.000000000000000E+000
  x is  -0.999977639572028     
  x is  -0.999958404089290     
  x is  -2.854041463307144E-005
  x is  -2.854040800481794E-005
  x is  -0.999545725558603     
  x is  -0.999506011264623     
Largest asymmetry in FCM    0.000000056534848
  Vibrational frequencies  (cm-1) :
      1    0.45492     2.95446
      2  531.54434    15.99922
      3 1182.85240   202.20624
      4 1293.30631    21.22044
      5 2224.88796   387.32093
      6 3521.94671    48.55060
Largest asymmetry in FCM    0.000000014006458
  Vibrational frequencies  (cm-1) :
      1    0.42850     0.76441
      2    1.51242   117.03612
      3  603.15914     0.56555
 @CHECKOUT-I, Total execution time (CPU/WALL):         0.01/       0.04 seconds.
Line Symbol    AtNr   At. Mass
  1  H          1     1.00783
  2  N          7    14.00307
  3  N          7    14.00307
  4  N          7    14.00307
                     1                     4                     6
  -1.00000000000000       0.143910383796732       0.945155563915466     
  R VECTOR before symmetry
  0.000000000000000E+000  0.000000000000000E+000  0.000000000000000E+000
   1.91888092156538       0.000000000000000E+000  0.000000000000000E+000
   2.34510368283468        1.90352209520341       0.000000000000000E+000
   2.13440346520959        2.99718084710007        3.14159265358979     
   Rotational constants (in cm-1): 
          0.3961358294             0.4040117457            20.3206232422
   Rotational constants (in MHz): 
      11875.8550630208         12111.9691269639        609197.0443331272
********************************************************************************
   The full molecular point group is Cs  .
   The largest Abelian subgroup of the full molecular point group is Cs  .
   The computational point group is Cs  .
********************************************************************************
  R VECTOR 
  0.000000000000000E+000  0.000000000000000E+000  0.000000000000000E+000
   1.91888092156538       0.000000000000000E+000  0.000000000000000E+000
   2.34510368283468        1.90352209520341       0.000000000000000E+000
   2.13440346520959        2.99718084710007        3.14159265358979     
 @GEOPT-W, Archive file not created for single-point calculation.
                     0                     0
  calling readgh 2 
  gradient from JOBARC 
   0.000000000000000   0.000000000000000   0.000000000000000
   0.000000000000000   0.000000000000000   0.000000000000000
   0.000000000000000   0.000000000000000   0.000000000000000
   0.000000000000000   0.000000000000000   0.000000000000000
 
                     0
  current gradient vector 
        0.000000000000000        0.000000000000000        0.000000000000000
        0.000000000000000        0.000000000000000        0.000000000000000
        0.000000000000000        0.000000000000000        0.000000000000000
        0.000000000000000        0.000000000000000        0.000000000000000
  @PROJFCM-I, Projecting force constant matrix onto totally symmetric subspace.
  Largest difference between matrix elements of symmetrized
  and unsymmetrized FCM :     0.2081668171E-16.
  masses used (in AMU) in vibrational analysis: 
   1.007825035     14.003074002     14.003074002
  14.003074002
                     Normal Coordinate Analysis
  ----------------------------------------------------------------
    Irreducible         Harmonic       Infrared        Type 
   Representation       Frequency      Intensity 
  ----------------------------------------------------------------
                       (cm-1)         (km/mol)
  ----------------------------------------------------------------
      ----                 0.0000i        0.0000      TRANSLATION
      ----                 0.0000i        0.0000      TRANSLATION
      ----                 0.0000i        0.0000      TRANSLATION
      ----                 0.4285         0.7644       ROTATION  
      ----                 0.4549         2.9545       ROTATION  
      ----                 1.5124       117.0361       ROTATION  
        A'               531.5451        15.9992       VIBRATION 
       A''               603.1600         0.5655       VIBRATION 
        A'              1182.8540       202.2062       VIBRATION 
        A'              1293.3081        21.2204       VIBRATION 
        A'              2224.8910       387.3209       VIBRATION 
        A'              3521.9515        48.5506       VIBRATION 
  ----------------------------------------------------------------
 
 
                                   Normal Coordinates 

                A'                       A''                        A'
               531.55                    603.16                   1182.85 
             VIBRATION                 VIBRATION                 VIBRATION 
 H      0.283 0.2215  0.0000    0.0000  0.0000  0.2739    0.4413  0.2634 -0.0000
 N     -0.100 0.2670 -0.0000   -0.0000 -0.0000  0.2977   -0.6720 -0.2605  0.0000
 N     -0.007-0.7695  0.0000    0.0000 -0.0000 -0.8050    0.2043  0.2265  0.0000
 N      0.031 0.4430  0.0000    0.0000 -0.0000  0.4339    0.3493 -0.0366 -0.0000

                A'                        A'                        A'
              1293.31                   2224.89                   3521.95 
             VIBRATION                 VIBRATION                 VIBRATION 
 H      0.692 0.2356  0.0000    0.1159  0.0336 -0.0000    0.4382 -0.8612  0.0000
 N      0.404-0.2042 -0.0000    0.1739 -0.0186  0.0000   -0.1283  0.2230 -0.0000
 N     -0.126 0.1666  0.0000   -0.7850  0.0387  0.0000    0.0014  0.0079 -0.0000
 N     -0.463-0.0257  0.0000    0.5799 -0.0291 -0.0000    0.0093  0.0002  0.0000
 
                      Normal modes in internal coordinates 
---------------------------------------------------------------------------
              0.000         0.000         0.000         0.428         0.455
---------------------------------------------------------------------------
B1        -0.000000      0.000000      0.000000      0.000000     -0.000000
B2         0.000000      0.000000      0.000000     -0.000000     -0.000000
A1         0.000000     -0.000000     -0.000000     -0.000000      0.000000
B3        -0.000000      0.000000     -0.000000      0.000000     -0.000000
A2        -0.000000      0.000000      0.000000      0.000000      0.000000
D180       0.000000      0.000000     -0.000000     -0.000001      0.000000
---------------------------------------------------------------------------
              1.512       531.545       603.160      1182.854      1293.308
---------------------------------------------------------------------------
B1        -0.000000      0.018525     -0.000000      0.081694      0.039834
B2         0.000000     -0.014010      0.000000      0.504329     -0.308599
A1        -0.000000     -0.217092     -0.000000     -0.840683     -0.911013
B3         0.000000     -0.010489      0.000000      0.085325     -0.206921
A2        -0.000000      0.975818     -0.000000     -0.157955     -0.174409
D180       0.000001     -0.000000     -1.000000      0.000000      0.000000
---------------------------------------------------------------------------
           2224.891      3521.952
---------------------------------------------------------------------------
B1         0.012895     -0.999308
B2        -0.564532      0.027717
A1        -0.130833      0.004909
B3         0.813772      0.002141
A2        -0.042362      0.024219
D180       0.000000     -0.000000
---------------------------------------------------------------------------
 
  ----------------------------------------------------------------
                    Dipole Moment Function
                   (Normal Coordinate Basis)
  ----------------------------------------------------------------
    Mode     Symmetry    d(Mu(x))/dQ   d(Mu(y))/dQ   d(Mu(z))/dQ
  ----------------------------------------------------------------
     Q7          A'        0.126920     -0.017410      0.000000
     Q8         A''        0.000000     -0.000000      0.024086
     Q9          A'        0.455422      0.003135     -0.000000
     Q10         A'        0.146650      0.016164      0.000000
     Q11         A'       -0.629894     -0.023216     -0.000000
     Q12         A'        0.181507     -0.129836      0.000000
  ----------------------------------------------------------------
---------------------------------------------------------------------------
------------------------------------------------------------
        Parameter                (MHz)                 (CM-1)
------------------------------------------------------------
 
           R6                -.243186E-05           -.811180E-10
           R5                -.134779E+00           -.449573E-05
           SI                            0.502541E+04
 
  A-reduced centrifugal distortion parameters (Ir representation) 
 
           DJ                0.474414E-02           0.158247E-06
           DK                0.225625E+03           0.752603E-02
           DJK               0.773842E+00           0.258126E-04
           DELJ              0.474900E-02           0.158410E-06
           DELK              0.225625E+03           0.752603E-02
           DELJK             0.773813E+00           0.258116E-04
           delJ              0.778404E-04           0.259648E-08
           delK              0.318441E+00           0.106221E-04
 
  S-reduced centrifugal distortion parameters (Ir representation) 
 
           DJ                0.471732E-02           0.157353E-06
           DK                0.225625E+03           0.752603E-02
           DJK               0.774003E+00           0.258180E-04
           D1                -.778404E-04           -.259648E-08
           D2                -.158416E-04           -.528418E-09
------------------------------------------------------------
   Rotationally projected vibrational frequencies 
            1               0.0000i
            2               0.0000i
            3               0.0000i
            4               0.0000i
            5               0.0000i
            6               0.0000 
            7             531.5451 
            8             603.1600 
            9            1182.8540 
           10            1293.3081 
           11            2224.8910 
           12            3521.9515 
  Zero-point energy:   13.3775 kcal/mol =   55.9715 kJ/mol =    4678.855 cm-1 
 
 @CHECKOUT-I, Total execution time (CPU/WALL):         0.08/       0.13 seconds.
 @GETMEM-I,  Allocated   45776 MB of main memory.
  linear flag is set to                      0
  Analysis of normal coordinate   1:
  Mode is totally symmetric.
  Analysis of normal coordinate   2:
  Mode is not totally symmetric, but + and - distinct.
  Analysis of normal coordinate   3:
  Mode is not totally symmetric, but + and - distinct.
  Analysis of normal coordinate   4:
  Mode is not totally symmetric.
  Analysis of normal coordinate   5:
  Mode is totally symmetric.
  Analysis of normal coordinate   6:
  Mode is not totally symmetric.
  Analysis of normal coordinate   7:
  Mode is totally symmetric.
  Analysis of normal coordinate   8:
  Mode is not totally symmetric.
  Analysis of normal coordinate   9:
  Mode is totally symmetric.
  Analysis of normal coordinate  10:
  Mode is totally symmetric.
  Analysis of normal coordinate  11:
  Mode is totally symmetric.
  Analysis of normal coordinate  12:
  Mode is totally symmetric.
  done here
  Choosing displaced geometries for anharmonic force constant calculation.

 *Analyzing normal coordinate   7.
  This totally symmetric coordinate will be used. [  7]
 *Analyzing normal coordinate   8.
  The one-dimensional nonsymmetric coordinate will be used. [  8]
 *Analyzing normal coordinate   9.
  This totally symmetric coordinate will be used. [  9]
 *Analyzing normal coordinate  10.
  This totally symmetric coordinate will be used. [ 10]
 *Analyzing normal coordinate  11.
  This totally symmetric coordinate will be used. [ 11]
 *Analyzing normal coordinate  12.
  This totally symmetric coordinate will be used. [ 12]
  length                  1728
  Summary of displaced coordinates used in calculation
  Displaced point   1, normal coordinate   7, positive displacement:
H        -2.996444651387762        1.577116119551391       -0.000000000000000
N        -2.194617462134303       -0.166361052771152       -0.000000000000000
N         0.138743295664528        0.067196810042162       -0.000000000000000
N         2.271533380670109       -0.014343484799903        0.000000000000000
  Displaced point   2, normal coordinate   7, negative displacement:
H        -3.009870253558056        1.566615137527684       -0.000000000000000
N        -2.193345524672150       -0.169757260698062       -0.000000000000000
N         0.138843916355910        0.076983195458683       -0.000000000000000
N         2.271127085922397       -0.019977888766210        0.000000000000000
  Displaced point   3, normal coordinate   8, positive displacement:
H        -3.003157452472909        1.571865628539537        0.006095240319610
N        -2.193981493403226       -0.168059156734607        0.001777015302298
N         0.138793606010219        0.072090002750423       -0.004805907330875
N         2.271330233296253       -0.017160686783056        0.002590207223543
  Displaced point   4, normal coordinate   9, positive displacement:
H        -2.996144901059651        1.576050327468002       -0.000000000000000
N        -2.196846206476511       -0.169169834639841       -0.000000000000000
N         0.139664461733298        0.073055501094601       -0.000000000000000
N         2.272819385402989       -0.017316687116034        0.000000000000000
  Displaced point   5, normal coordinate   9, negative displacement:
H        -3.010170003886166        1.567680929611072       -0.000000000000000
N        -2.191116780329942       -0.166948478829374       -0.000000000000000
N         0.137922750287140        0.071124504406244       -0.000000000000000
N         2.269841081189517       -0.017004686450079        0.000000000000000
  Displaced point   6, normal coordinate  10, positive displacement:
H        -2.992631354499479        1.575446298037536       -0.000000000000000
N        -2.192332703762956       -0.168891527808590       -0.000000000000000
N         0.138277498086215        0.072769274945972       -0.000000000000000
N         2.269439970419096       -0.017265294773960        0.000000000000000
  Displaced point   7, normal coordinate  10, negative displacement:
H        -3.013683550446338        1.568284959041538       -0.000000000000000
N        -2.195630283043497       -0.167226785660625       -0.000000000000000
N         0.139309713934223        0.071410730554873       -0.000000000000000
N         2.273220496173410       -0.017056078792153        0.000000000000000
  Displaced point   8, normal coordinate  11, positive displacement:
H        -3.001814848648230        1.572254968550003       -0.000000000000000
N        -2.193440839708796       -0.168117002847782       -0.000000000000000
N         0.136353732346229        0.072210188274560       -0.000000000000000
N         2.273132823786713       -0.017251047656279        0.000000000000000
  Displaced point   9, normal coordinate  11, negative displacement:
H        -3.004500056297587        1.571476288529071       -0.000000000000000
N        -2.194522147097656       -0.168001310621433       -0.000000000000000
N         0.141233479674208        0.071969817226285       -0.000000000000000
N         2.269527642805793       -0.017070325909833        0.000000000000000
  Displaced point  10, normal coordinate  12, positive displacement:
H        -2.999122414356639        1.563934970775145       -0.000000000000000
N        -2.194298371637551       -0.167508366369383       -0.000000000000000
N         0.138797024325030        0.072109485814575       -0.000000000000000
N         2.271353284664745       -0.017160177294494        0.000000000000000
  Displaced point  11, normal coordinate  12, negative displacement:
H        -3.007192490589179        1.579796286303929       -0.000000000000000
N        -2.193664615168902       -0.168609947099831       -0.000000000000000
N         0.138790187695408        0.072070519686271       -0.000000000000000
N         2.271307181927761       -0.017161196271619        0.000000000000000
 @CHECKOUT-I, Total execution time (CPU/WALL):         0.02/       0.07 seconds.
----------------------------------------------------------------------
Processing output from displaced point 001
----------------------------------------------------------------------


   *************************************************************************
         <<<     CCCCCC     CCCCCC   |||     CCCCCC     CCCCCC   >>>
       <<<      CCC        CCC       |||    CCC        CCC         >>>
      <<<      CCC        CCC        |||   CCC        CCC            >>>
    <<<        CCC        CCC        |||   CCC        CCC              >>>
      <<<      CCC        CCC        |||   CCC        CCC            >>>
       <<<      CCC        CCC       |||    CCC        CCC         >>>
         <<<     CCCCCC     CCCCCC   |||     CCCCCC     CCCCCC   >>>
   *************************************************************************

     ****************************************************************
     * CFOUR Coupled-Cluster techniques for Computational Chemistry *
     ****************************************************************
 

   Department of Chemistry                Institut fuer Physikalische Chemie
   University of Texas at Austin          Universitaet Mainz
   Austin, TX  78712, USA                 D-55099 Mainz, Germany
 
                       Version 1.2
 
                     compute-0-0.local                                 
                     Tue Mar  9 12:36:33 CST 2021                      
                     integer*8 version is running
 
********************************************************************************
*                          Input from ZMAT file                                *
********************************************************************************
GEOMETRY  1 SYMMETRIC DISPLACEMENT                                              
H        -2.996444651387762        1.577116119551391       -0.000000000000000   
N        -2.194617462134303       -0.166361052771152       -0.000000000000000   
N         0.138743295664528        0.067196810042162       -0.000000000000000   
N         2.271533380670109       -0.014343484799903        0.000000000000000   
                                                                                
*CFOUR(CALC=CCSD(T)                                                             
BASIS=cc-pCV5Z                                                                  
VIB=FINDIF                                                                      
FREQ_ALGORITHM=PARALLEL                                                         
FD_PROJECT=OFF                                                                  
ANH_ALGORITHM=PARALLEL                                                          
ANHARM=VPT2                                                                     
ABCDTYPE=AOBASIS                                                                
CC_PROG=NCC                                                                     
FCGRADNEW=2                                                                     
SCF_CONV=9                                                                      
CC_CONV=9                                                                       
LINEQ_CONV=9                                                                    
LINEQ_MAXCYC=200                                                                
MULT=1                                                                          
FROZEN_CORE=OFF                                                                 
MEM_UNIT=GB                                                                     
MEM=48                                                                          
COORD=CARTESIAN,UNITS=BOHR,ANHARM=0)                                            
                                                                                
********************************************************************************
    -------------------------------------------------------------------
                    CFOUR Control Parameters 
    -------------------------------------------------------------------
        External           Internal           Value            Units
          Name               Name
    -------------------------------------------------------------------
       ABCDTYPE             IABCDT         AOBASIS     [  2]    ***   
       ANHARMONIC           IANHAR         OFF         [  0]    ***   
       ANH_ALGORIT          IANALG         PARALLEL    [  1]    ***   
       ANH_DERIVAT          IANDER         SECOND      [  1]    ***   
       ANH_MODE             ANHMOD         VIBRATION   [  0]    ***   
       ANH_POINTS           IANPOI              1               ***   
       ANH_STEPSIZ          ICUBST             50000          x 10-6  
       ANH_SYMMETR          IANHSM         ABELIAN     [  0]    ***   
       AO_LADDERS           IAOLAD         SINGLEPASS  [  1]    ***   
       AV_SCF               IAVSCF         OFF         [  0]    ***   
       BASIS                IBASIS         PCV5Z       [ 26]    ***   
       BFIELD               IBFIEL         OFF         [  0]    a.u.  
       BOTHVECTORS          BOTHVC         OFF         [  0]    ***   
       BOX_POTENT           IPIAB          OFF         [  0]    ***   
       BREIT                IBREIT         OFF         [  0]    ***   
       BRUCK_CONV           IBRTOL          10D-  4             ***   
       BRUECKNER            IBRKNR         OFF         [  0]    ***   
       BUFFERSIZE           IBUFFS              4096            ***   
       CACHE_RECS           ICHREC             10               ***   
       CALCLEVEL            ICLLVL         CCSD(T)     [ 22]    ***   
       CAS_GECCO            ICMRCC         OFF         [  0]    ***   
       CAS_GUESS            ICGUES         CANONICAL   [  0]    ***   
       CAS_INPUT            ICSINP         ORBITALS    [  0]    ***   
       CAS_ITMAX            ICITMX          10D- 50           cycles  
       CAS_JACDAV           ICJDAV         OFF         [  0]    ***   
       CAS_MICMAX           ICMIMN          10D- 10             ***   
       CAS_MICMIN           ICMIMX          10D-  2             ***   
       CAS_MICRO            ICSALG         ILU/JACOBI  [  0]    ***   
       CAS_MITMAX           ICMIMX          10D-100           cycles  
       CAS_MMAX             ICMMAX          10D- 50             ***   
       CAS_PRINT            ICPRT           10D-  0             ***   
       CCORBOPT             ICCORB         OFF         [  0]  x 0.01  
       CC_CONV              ICCCNV          10D-  9             ***   
       CC_EXPORDER          ICCEOR              5               ***   
       CC_EXTRAPOL          ICCEXT         DIIS        [  1]    ***   
       CC_GUESS             ICCGES         MP2         [  0]    ***   
       CC_MAXCYC            ICCCYC            100              cycles 
       CC_PROGRAM           ICCPRO         NCC         [  5]    ***   
       CHARGE               ICHRGE              0               ***   
       CHOLESKY             ICHOLE         OFF         [  0]    ***   
       CIS_CONV             ICISTL              5               ***   
       COMM_SIZE            IPSIZE            ***               ***   
       CONSTANT             ICONST         OLD         [  1]    ***   
       CONTINUUM            ICONTU         NONE        [  0]    ***   
       CONTRACTION          ICNTYP         GENERAL     [  1]    ***   
       COORDINATES          ICOORD         CARTESIAN   [  1]    ***   
       CPHF_CONVER          ICPHFT          10D- 16             ***   
       CPHF_MAXCYC          ICPHFC             64              cycles 
       CUBIC                ICUBIC         OFF         [  0]    ***   
       CURVILINEAR          ICURVY         OFF         [  0]    ***   
       CV_ELEMENT           ICVELM              0               ***   
       CV_ORBITALS          ICVORB      NONE         
       CV_SEPARATE          ICVSEP         OFF         [  0]    ***   
       DBOC                 IDBOC          OFF         [  0]    ***   
       DCT                  IDCT           OFF         [  0]    ***   
       DERIV_LEV            IDRLVL         FIRST       [  1]    ***   
       DEVMEM_SIZE          IDVMEM         *********           MByte  
       DIAG_MRCC            IEOMST          10D-  0             ***   
       DIFF_TYPE            IDIFTY         RELAXED     [  0]    ***   
       DIRECT               IDIRCT         OFF         [  0]    ***   
       DROPMO               IDRPMO      NONE         
       ECP                  IECP           OFF         [  0]    ***   
       EIGENVECTOR          IVEC                1               ***   
       EL_ANHARM            IELANH         OFF         [  0]    ***   
       EOMFOLLOW            IEOMSR         ENERGY      [  0]    ***   
       EOMIP                IEOMIP         OFF         [  0]    ***   
       EOMLEVEL             HBARFM         SAME        [  0]    ***   
       EOM_MRCC             IMRCCE         NEW         [  1]    ***   
       EOM_NONIT            EOMNON         OFF         [  0]    ***   
       EOM_NSING            IEOMSI          10D-  0             ***   
       EOM_NSTATES          IMRCCD         DAVIDSON    [  0]    ***   
       EOM_NTRIP            IEOMTR          10D-  0             ***   
       EOM_ORDER            IEXORD         ENERGY      [  0]    ***   
       EOM_PROPSTA          IEOMST              0               ***   
       ESTATE_CONV          IEXTOL          10D-  5             ***   
       ESTATE_DIAG          IEXDIG         ITERATIVE   [  0]    ***   
       ESTATE_LOCK          IESLOC         ON          [  1]    ***   
       ESTATE_MAXC          IEXMXC             40               ***   
       ESTATE_PROP          IEXPRP         OFF         [  0]    ***   
       EVAL_HESS            IRECAL              0            # of cyc.
       EXCITATION           IEXCIT              0               ***   
       EXCITE               IEXCIT         NONE        [  0]    ***   
       EXTERN_POT           IEXPOT         OFF         [  0]    ***   
       FCGRADNEW            IFCGNW         OFF         [  0]    ***   
       FC_FIELD             IFINFC              0             x 10-6  
       FD_CALTYPE           IFDCAL         GRADONLY    [  0]    ***   
       FD_PROJECT           IFDPRJ         OFF         [  1]    ***   
       FD_STEPSIZE          IDISFD              5            10-4 bohr
       FD_USEGROUP          IFDGRP         FULL        [  0]    ***   
       FILE_RECSIZ          IFLREC              4096           words  
       FINITE_PERT          IFIPER              0             x 10-6  
       FIXGEOM              IFIXGM         OFF         [  0]    ***   
       FOCK                 IFOCK          AO          [  1]    ***   
       FREQ_ALGORI          IVIALG         PARALLEL    [  1]    ***   
       FROZEN_CORE          IFROCO         OFF         [  0]    ***   
       FROZEN_VIRT          IFROVI         OFF         [  0]    ***   
       GAMMA_ABCD           IGABCD         DIRECT      [  1]    ***   
       GAMMA_ABCI           IGABCI         STORE       [  0]    ***   
       GENBAS_1             IGNBS1              0               ***   
       GENBAS_2             IGNBS2              0               ***   
       GENBAS_3             IGNBS3              0               ***   
       GENBAS_4             IGNBS4              0               ***   
       GEO_CONV             ICONTL              5              H/bohr 
       GEO_MAXCYC           IOPTCY             50               ***   
       GEO_MAXSTEP          IMXSTP            300            millibohr
       GEO_METHOD           INR            SINGLE_POINT[  5]    ***   
       GIAO                 IGIAO          OFF         [  1]    ***   
       GIMIC                IGIMIC         OFF         [  0]    ***   
       GRID                 IGRID          OFF         [  0]    ***   
       GRID_ALGO            IGALGO         SERIAL      [  0]    ***   
       GUESS                IGUESS         MOREAD      [  0]    ***   
       HBAR                 IHBAR          OFF         [  0]    ***   
       HESS_TYPE            IHESTP         SCF         [  0]    ***   
       HF2_FILE             IHF2Fl         USE         [  1]    ***   
       HFSTABILITY          ISTABL         OFF         [  0]    ***   
       INCORE               INCORE         OFF         [  0]    ***   
       INPUT_MRCC           IMRCC          ON          [  1]    ***   
       INTEGRALS            INTTYP         VMOL        [  1]    ***   
       JODA_PRINT           IJPRNT              0               ***   
       KEYWORD_OUT          IDMPKW         NO          [  0]    ***   
       LINDEP_TOL           ILINDP              8               ***   
       LINEQ_CONV           IZTACN          10D-  9           cycles  
       LINEQ_EXPOR          ILMAXD              5               ***   
       LINEQ_MAXCY          ILMAXC            200               ***   
       LINEQ_TYPE           ILTYPE         DIIS        [  1]    ***   
       LOCK_ORBOCC          ILOCOC         OFF         [  0]    ***   
       MEMORY_SIZE          IMEMSZ         *********           words  
       MEM_UNIT             IMEMU          GB          [  3]    ***   
       MRCC                 IMRCCC         OFF         [  0]    ***   
       MULTIPLICTY          IMULTP              1               ***   
       NACOUPLING           IVCOUP         OFF         [  0]    ***   
       NEGEVAL              IDIE           ABORT       [  0]    ***   
       NEWNORM              INEWNO         OFF         [  0]    ***   
       NON-HF               INONHF         OFF         [  0]    ***   
       NTOP_TAMP            ITOPT2             15               ***   
       NUC_MODEL            INUCMO         POINT       [  0]    ***   
       OCCUPATION           IOCCU   ESTIMATED BY SCF 
       OPEN-SHELL           IOPEN          SPIN-ORBITAL[  0]    ***   
       OPTVIB               IOPTVB         OFF         [  0]    ***   
       ORBITALS             IORBTP         STANDARD    [  0]    ***   
       PARALLEL             IPARAL         ON          [  1]    ***   
       PARA_INT             IPINTS         ON          [  1]    ***   
       PARA_PRINT           IPPRIN              0               ***   
       PERT_ORB             IPTORB         CANONICAL   [  1]    ***   
       POINTS               IGRDFD              0               ***   
       PRINT                IPRNT               0               ***   
       PROPS                IPROPS         OFF         [  0]    ***   
       PROP_INTEGR          IINTYP         INTERNAL    [  0]    ***   
       PSI                  IPSI           OFF         [  0]    ***   
       QC_ALG               IQCALG         FLM         [  0]    ***   
       QC_LINALG            IQCLIN         TRIDIAG     [  2]    ***   
       QC_MAXCYC            IQCMAX            100             cycles  
       QC_MAXSCFCY          IQCMSC             20             cycles  
       QC_RTRUST            IQCRTR          10D-  0           x 10-3  
       QC_SKIPSCF           IQCSKI         OFF         [  0]    ***   
       QC_START             IQCSTA          10D-  3             ***   
       QRHFGUESS            IQGUES         OFF         [  0]    ***   
       QUARTIC              IQUART         OFF         [  0]    ***   
       RAMAN_INT            IRAMIN         OFF         [  0]    ***   
       RAMAN_ORB            IRAMRE         UNRELAXED   [  0]    ***   
       RDO                  IRDOFM         ON          [  1]    ***   
       REDUCE_REPR          REDREP         Ir          [  0]    ***   
       REFERENCE            IREFNC         RHF         [  0]    ***   
       RELATIVIST           IRELAT         OFF         [  0]    ***   
       RELAX_DENS           IRDENS         ON          [  1]    ***   
       RESET_FLAGS          IRESET         OFF         [  0]    ***   
       RESTART_CC           ICCRES         OFF         [  0]    ***   
       ROT_EVEC             ROTVEC              0               ***   
       SAVE_INTS            ISVINT         OFF         [  0]    ***   
       SCALE_ON             ISTCRT              0               ***   
       SCF_CONV             ISCFCV          10D-  9             ***   
       SCF_DAMPING          IDAMP               0             x 10-3  
       SCF_EXPORDE          IRPPOR             10               ***   
       SCF_EXPSTAR          IRPPLS              2               ***   
       SCF_EXTRAPO          IRPP           ON          [  1]    ***   
       SCF_MAXCYC           ISCFCY            150              cycles 
       SCF_NOSTOP           ISCFST         OFF         [  0]    ***   
       SCF_ORBITAL          ISCFOR         REAL        [  0]    ***   
       SCF_PRINT            ISCFPR              0               ***   
       SCF_PROG             ISCFPR         SCF         [  0]    ***   
       SD_FIELD             IFINSD              0             x 10-6  
       SOPERT               IPERSO         OFF         [  0]    ***   
       SPHERICAL            IDFGHI         ON          [  1]    ***   
       SPINORBIT            ISOCAL         OFF         [  0]    ***   
       SPINROTATIO          ISRCON         OFF         [  0]    ***   
       SPIN_FLIP            ISPFLP         OFF         [  0]    ***   
       SPIN_ORBIT           ISPORB         OFF         [  0]    ***   
       SPIN_SCAL            ISCSMP         OFF         [  0]    ***   
       STEEPSCALE           ISTPSC              1000          x 10-3  
       SUBGROUP             ISUBGP         DEFAULT     [  0]    ***   
       SUBGRPAXIS           ISBXYZ         X           [  0]    ***   
       SYMMETRY             ISYM           ON          [  0]    ***   
       SYM_CHECK            ISYMCK         OVERRIDE    [  1]    ***   
       T3_EXTRAPOL          IT3EXT         OFF         [  0]    ***   
       T4_EXTRAPOL          IT4EXP         OFF         [  0]    ***   
       TAMP_SUM             IEVERY              5               ***   
       TESTSUITE            ITESTS         OFF         [  0]    ***   
       THERMOCH             ITHERM         ON          [  1]    ***   
       TOL_CHOLESK          ITOLCH          10D-  4             ***   
       TRANGRAD             IRESRM         OFF         [  0]    ***   
       TRANS_INV            ITRAIN         USE         [  0]    ***   
       TREAT_PERT           ITREAT         SIMULTANEOUS[  0]    ***   
       TRIP_ALGORI          ITRALG         NORMAL      [  0]    ***   
       UIJ_THRESHO          IUIJTH              1               ***   
       UNITS                IUNITS         BOHR        [  1]    ***   
       UNOS                 IUNOS          OFF         [  0]    ***   
       UPDATE_HESS          IHUPDT         ON          [  1]    ***   
       VIBPHASE             ISETPH         STANDARD    [  0]    ***   
       VIBRATION            IVIB           FINDIF      [  3]    ***   
       VIB_ALGORIT          IGEALG         STANDARD    [  0]    ***   
       VNATORB              IVNORB         OFF         [  0]    ***   
       VTRAN                IVTRAN         PARTIAL     [  2]    ***   
       X2CKEY               IX2CKE         MOLVDINT    [  0]    ***   
       XFIELD               IXEFLD              0             x 10-6  
       XFORM_TOL            IXFTOL          10D- 11             ***   
       YFIELD               IYEFLD              0             x 10-6  
       ZFIELD               IZEFLD              0             x 10-6  
       ZSCALE_EXP           IZEXPS         OFF         [  0]    ***   
    -------------------------------------------------------------------
  @GETXYZ-I,     4 atoms read from ZMAT.
Line Symbol    AtNr   At. Mass
  1  H          1     1.00783
  2  N          7    14.00307
  3  N          7    14.00307
  4  N          7    14.00307
Line Symbol    AtNr   At. Mass
  1  H          1     1.00783
  2  N          7    14.00307
  3  N          7    14.00307
  4  N          7    14.00307
                     1                     4                     0
  R VECTOR before symmetry
  0.000000000000000E+000  0.000000000000000E+000  0.000000000000000E+000
  0.000000000000000E+000  0.000000000000000E+000  0.000000000000000E+000
  0.000000000000000E+000  0.000000000000000E+000  0.000000000000000E+000
  0.000000000000000E+000  0.000000000000000E+000  0.000000000000000E+000
   Rotational constants (in cm-1): 
          0.3961119917             0.4039813127            20.3348984522
   Rotational constants (in MHz): 
      11875.1404282608         12111.0567683312        609625.0044217113
********************************************************************************
   The full molecular point group is Cs  .
   The largest Abelian subgroup of the full molecular point group is Cs  .
   The computational point group is Cs  .
********************************************************************************
  R VECTOR 
  0.000000000000000E+000  0.000000000000000E+000  0.000000000000000E+000
  0.000000000000000E+000  0.000000000000000E+000  0.000000000000000E+000
  0.000000000000000E+000  0.000000000000000E+000  0.000000000000000E+000
  0.000000000000000E+000  0.000000000000000E+000  0.000000000000000E+000


 ----------------------------------------------------------------
         Coordinates used in calculation (QCOMP) 
 ----------------------------------------------------------------
 Z-matrix   Atomic            Coordinates (in bohr)
  Symbol    Number           X              Y              Z
 ----------------------------------------------------------------
     H         1        -2.99618444     1.57761041     0.00000000
     N         7        -2.19464488    -0.16599901     0.00000000
     N         7         0.13875438     0.06717392     0.00000000
     N         7         2.27153098    -0.01471821     0.00000000
 ----------------------------------------------------------------
 
   Interatomic distance matrix (Angstroms) 
 
                 H             N             N             N    
                [ 1]        [ 2]        [ 3]        [ 4]
  H    [ 1]     0.00000
  N    [ 2]     1.01550     0.00000
  N    [ 3]     1.84145     1.24093     0.00000
  N    [ 4]     2.91213     2.36475     1.12945     0.00000
   Rotational constants (order x, y, z, in cm-1): 
         20.3348984522             0.4039813127             0.3961119917
   Rotational constants (order x, y, z, in MHz): 
     609625.0044217083         12111.0567683312         11875.1404282608
  ECPDATA file not present.   Using default ECPDATA. 
  There are  490 basis functions.
 @GEOPT-W, Archive file not created for single-point calculation.
 @CHECKOUT-I, Total execution time (CPU/WALL):         0.32/       0.72 seconds.
 @GETMEM-I,  Allocated   45776 MB of main memory.
  @SYMCOR-I, Full point group is dangerous! Abelian subgroup will be used.
  @CHRTABLE-I, There are   2 unique irreducible representations.
  @CHRTABLE-I, There are   2 unique irreducible representations.
  @VIBINF-I, Symmetries species for nuclear motions:
  Irrep     Label    Total    Vibrations     Translations     Rotations
    1         A'      8.00       5.00            2.00            1.00
    2         A''     4.00       1.00            1.00            2.00
   Total number of calculations required      :    15
   Number of single-point energy calculations :     0
   Number of energy gradient     calculations :    15
  atom charge vector                      1                     7
                     7                     7
  List of displaced geometries used in the calculation 
 
  Displaced point   1:
H        -2.9956922519        1.5776104132        0.0000000000
N        -2.1946566842       -0.1659990106        0.0000000000
N         0.1387425712        0.0671739210        0.0000000000
N         2.2715191757       -0.0147182131        0.0000000000
 
  Displaced point   2:
H        -2.9966766244        1.5776104132        0.0000000000
N        -2.1946330686       -0.1659990106        0.0000000000
N         0.1387661869        0.0671739210        0.0000000000
N         2.2715427914       -0.0147182131        0.0000000000
 
  Displaced point   3:
H        -2.9961844382        1.5781025995        0.0000000000
N        -2.1946448764       -0.1660108184        0.0000000000
N         0.1387543790        0.0671621132        0.0000000000
N         2.2715309836       -0.0147300210        0.0000000000
 
  Displaced point   4:
H        -2.9961844382        1.5771182270        0.0000000000
N        -2.1946448764       -0.1659872027        0.0000000000
N         0.1387543790        0.0671857289        0.0000000000
N         2.2715309836       -0.0147064053        0.0000000000
 
  Displaced point   5:
H        -2.9961844382        1.5776104132        0.0000000000
N        -2.1945357794       -0.1659990106        0.0000000000
N         0.1386998306        0.0671739210        0.0000000000
N         2.2714764351       -0.0147182131        0.0000000000
 
  Displaced point   6:
H        -2.9961844382        1.5776104132        0.0000000000
N        -2.1947539734       -0.1659990106        0.0000000000
N         0.1388089275        0.0671739210        0.0000000000
N         2.2715855320       -0.0147182131        0.0000000000
 
  Displaced point   7:
H        -2.9961844382        1.5776104132        0.0000000000
N        -2.1946448764       -0.1658899136        0.0000000000
N         0.1387543790        0.0671193725        0.0000000000
[...]
     AXIS        MODE       CORIOLIS     QUADRATIC     ANHARMONIC    TOTAL
  ----------------------------------------------------------------------------
       1           7      20.9846289     -0.0126568   -0.1087293   20.8632428
       1           8      **********     -0.0000000    0.0078725   **********
       1           9      -0.1275451     -0.3108531   -0.3192830   -0.7576812
       1          10      -0.0525741     -0.2023027   -0.2614197   -0.5162965
       1          11      -0.0019778     -0.0024606    0.1015135    0.0970752
       1          12      -0.0226153     -0.5350233    1.4602064    0.9025678
       2           7       0.0000424     -0.0001597   -0.0009374   -0.0010547
       2           8       0.0006907     -0.0000000   -0.0007926   -0.0001019
       2           9      -0.0000103     -0.0006637    0.0020799    0.0014059
       2          10      -0.0000461     -0.0006284    0.0009535    0.0002789
       2          11      -0.0004552     -0.0000268    0.0034230    0.0029409
       2          12      -0.0000021     -0.0000560    0.0004992    0.0004411
       3           7       0.0007402     -0.0000004   -0.0009426   -0.0002028
       3           8       0.0000000     -0.0000000   -0.0007590   -0.0007590
       3           9       0.0004172     -0.0003273    0.0018783    0.0019682
       3          10      -0.0000509     -0.0003768    0.0008173    0.0003896
       3          11      -0.0004453     -0.0000222    0.0033294    0.0028619
       3          12      -0.0003082     -0.0000050    0.0010348    0.0007216
  ----------------------------------------------------------------------------
 
 
  ----------------------------------------------------------------------------
   Be, B0 AND B-B0 SHIFTS FOR SINGLY EXCITED VIBRATIONAL STATES (CM-1)
   ------------------------------------------------------------
  VIBRATION            X AXIS               Y AXIS                 Z AXIS
  ----------------------------------------------------------------------------
    Be                   20.32061176           0.40401152           0.39613561
    B0                   20.38686222           0.40205644           0.39364587
    Be-B0                -0.06625045           0.00195507           0.00248973
    B'                   20.38688303           0.40207725           0.39361466
    Be-B'                -0.06627126           0.00193426           0.00252095
    B''                  20.38688334           0.40208539           0.39365878
    Be-B''               -0.06627158           0.00192612           0.00247683
    B^A                  20.38688303           0.40208051           0.39361140
    Be-B^A               -0.06627126           0.00193100           0.00252421
    B^S                  20.38688303           0.40205927           0.39363264
    Be-B^S               -0.06627127           0.00195225           0.00250296
     7                  -20.86324280           0.00105472           0.00020279
     8                   20.72140895           0.00010194           0.00075900
     9                    0.75768120          -0.00140588          -0.00196816
    10                    0.51629650          -0.00027891          -0.00038961
    11                   -0.09707519          -0.00294093          -0.00286190
    12                   -0.90256776          -0.00044110          -0.00072159
  ----------------------------------------------------------------------------
  ----------------------------------------------------------------------------
   Be, B0 AND B-B0 SHIFTS FOR SINGLY EXCITED VIBRATIONAL STATES (MHz)
  VIBRATION            X AXIS               Y AXIS                 Z AXIS
  ----------------------------------------------------------------------------
    Be               609196.61481899       12111.96058742       11875.84668995
    B0               611182.75348168       12053.34892289       11801.20642335
    Be-B0             -1986.13866269          58.61166454          74.64026661
    B'               611183.37734539       12053.97278660       11800.27062778
    Be-B'             -1986.76252640          57.98780082          75.57606218
    B''              611183.38680448       12054.21684745       11801.59322816
    Be-B''            -1986.77198549          57.74373997          74.25346180
    B^A              611183.37730648       12054.07057463       11800.17287866
    Be-B^A            -1986.76248749          57.89001279          75.67381130
    B^S              611183.37746490       12053.43362861       11800.80969795
    Be-B^S            -1986.76264591          58.52695882          75.03699200
     7              -625464.28406605          31.61985745           6.07943168
     8               621212.21234403           3.05614303          22.75437549
     9                22714.71100625         -42.14727254         -59.00386854
    10                15478.17966975          -8.36141407         -11.68010215
    11                -2910.24087974         -88.16684105         -85.79774597
    12               -27058.30074886         -13.22380190         -21.63262373
  ----------------------------------------------------------------------------
                             Vibrationally averaged dipole moment
--------------------------------------------------------------------------------
                              a.u.                         Debye
                     x         y         z              x         y         z
--------------------------------------------------------------------------------
MU_e           -0.32351   0.59657   0.00000       -0.82223   1.51624   0.00000
delta <MU> (1)  0.00000   0.00000   0.00000        0.00000   0.00000   0.00000
delta <MU> (2)  0.00000   0.00000   0.00000        0.00000   0.00000   0.00000
<MU>           -0.32100   0.59211  -0.00000       -0.81584   1.50490  -0.00000
 
Equilibrium dipole moment:    0.67865 a.u. (   1.72483 D)
Zero-point dipole moment:     0.67352 a.u. (   1.71182 D)
--------------------------------------------------------------------------------
********************************************************************************
  PARAMETERS RELEVANT TO VIBRATIONAL SPECTROSCOPY
********************************************************************************
  Quartic force constants written to file quartic.
  ==============================================================
  Performing F(IIJJ)/F(JJII) consistency check 
  Differences greater than 1 cm-1 will be printed.
  ==============================================================
  I    I    K    K       F(IIKK)       F(KKII)       Difference
  --------------------------------------------------------------
  8    8    7    7        21.080        22.111     -1.031211067
 11   11    7    7      -122.372      -121.049     -1.322481870
  7    7    8    8        22.111        21.080      1.031211067
 11   11    8    8      -112.370      -110.115     -2.254708093
 11   11    9    9        34.671        36.183     -1.511787726
  7    7   11   11      -121.049      -122.372      1.322481870
  8    8   11   11      -110.115      -112.370      2.254708093
  9    9   11   11        36.183        34.671      1.511787726
 12   12   11   11        -4.803        -5.985      1.182095631
 11   11   12   12        -5.985        -4.803     -1.182095631
  --------------------------------------------------------------
  Largest absolute difference is    2.25471 cm-1.
  Largest relative difference is .47750D-01.
     
     VPT2 vibrational analysis
     *************************
 
--------------------------------------------------------------------------------
    Checking for potential third-rank (Fermi) resonances 
--------------------------------------------------------------------------------
--------------------------------------------------------------------------------
  I  J  K     PHI(I,J,K)     DELTA(W_s)   DIFF(DIAG-VPT2)  Splitting by
                                                           Diagonalization
--------------------------------------------------------------------------------
 11  9  9   170.79030880   140.81704102     1.01154243    11.93492403
 12 10 11    12.40480376     3.75244557     2.23195380     2.89400849
--------------------------------------------------------------------------------
-------------------------------
  ANHARMONICITY CONSTANTS X(ij) 
                   (cm-1)
-------------------------------
  (*) Near-zero denominators were removed
-------------------------------
          I  J          X(IJ)
-------------------------------
           7  7       -0.9786 
           7  8       37.2989 
           7  9        0.2048 
           7 10        3.3696 
           7 11      -12.0267 
           7 12       -2.6960 
           8  8       -1.5651 
           8  9       -6.3812 
           8 10        9.9652 
           8 11      -11.8042 
           8 12       -1.8775 
           9  9       -1.2905 
           9 10      -16.8566 
           9 11      -36.3919 
           9 12       -1.6125 
          10 10       -2.8122 
          10 11      -17.2218 
          10 12      -12.1675 
          11 11      -14.3291 
          11 12       -2.7558 
          12 12      -78.7543 
 FERMI RESONANCE                     8                     8
                     9
 
--------------------------------------------------------------------------------
          HARMONIC AND FUNDAMENTAL FREQUENCIES (cm-1) AND INTENSITIES (km/mol)
--------------------------------------------------------------------------------

         Harmonic     Fundamental Anharmonic    Harmonic   Fundamental  Anharm
  Mode   Frequency    Frequency   Contribution  Intensity  Intensity    Contrib
    7    531.5451    542.6632       11.1181     15.9997      16.9678      0.9680
    8    603.1600    613.6304       10.4704      0.5656       0.6803      0.1147
    9   1182.8540   1149.7543      -33.0997    202.2128     171.9529    -30.2598
   10   1293.3081   1271.2281      -22.0800     21.2211      13.1933     -8.0278
   11   2224.8910   2156.1326      -68.7584    387.3334     304.8827    -82.4508
   12   3521.9515   3353.8883     -168.0632     48.5522       1.1436    -47.4086
--------------------------------------------------------------------------------
--------------------------------------------------------------------------------
                         ZERO-POINT VIBRATIONAL ENERGIES
--------------------------------------------------------------------------------
                            kcal/mol      kJ/mol        Hartree        cm-1
--------------------------------------------------------------------------------
Harmonic contribution   :     13.3775      55.9715      0.02131843      4678.855
VPT2 correction (direct):     -0.1596      -0.6676     -0.00025428       -55.808
0.25 x sum over X(IJ)   :     -0.1220      -0.5105     -0.00019442       -42.671
G0 term                 :     -0.0376      -0.1572     -0.00005986       -13.137
VPT2 correction (sum)   :     -0.1596      -0.6676     -0.00025428       -55.808
--------------------------------------------------------------------------------
Harm+VPT2               :     13.2179      55.3039      0.02106415      4623.047
--------------------------------------------------------------------------------
  MAXLEVEL set to                      3
 ------------------------------------------------------------------------------
                   All levels with up to three quanta
--------------------------------------------------------------------------------
  MODE MODE MODE MODE MODE                   Anharmonic    Anharm      Harmonic
   I    J    K    L    M   NI  NJ  NK  NL  NM Frequency   Intensity   Transition
--------------------------------------------------------------------------------
    7    0    0    0    0  1   0   0   0   0   542.663   16.967432    531.545062
    8    0    0    0    0  1   0   0   0   0   613.630    0.680263    603.159965
    7    0    0    0    0  2   0   0   0   0  1083.369    0.075818   1063.090123
    9    0    0    0    0  1   0   0   0   0  1149.754  171.949475   1182.854014
    8    7    0    0    0  1   1   0   0   0  1193.592    0.001025   1134.705027
    8    0    0    0    0  2   0   0   0   0  1224.130   36.293923   1206.319931
   10    0    0    0    0  1   0   0   0   0  1271.228   13.193071   1293.308071
    7    0    0    0    0  3   0   0   0   0  1622.118    0.000000   1594.635185
    9    7    0    0    0  1   1   0   0   0  1692.622    0.277408   1714.399076
    9    8    0    0    0  1   1   0   0   0  1757.003    0.081005   1786.013980
    8    7    0    0    0  1   2   0   0   0  1771.597    0.000000   1666.250089
   10    7    0    0    0  1   1   0   0   0  1817.260    0.512293   1824.853133
    8    0    0    0    0  3   0   0   0   0  1831.500    0.000000   1809.479896
    8    7    0    0    0  2   1   0   0   0  1841.391    0.000000   1737.864992
   10    8    0    0    0  1   1   0   0   0  1894.823    0.025472   1896.468037
   11    0    0    0    0  1   0   0   0   0  2156.132  304.876559   2224.890988
    9    7    0    0    0  1   2   0   0   0  2233.533    0.000000   2245.944137
    9    0    0    0    0  2   0   0   0   0  2296.927   55.934775   2365.708029
    9    8    7    0    0  1   1   1   0   0  2337.170    0.000000   2317.559041
    9    8    0    0    0  1   2   0   0   0  2361.122    0.000000   2389.173945
   10    7    0    0    0  1   2   0   0   0  2361.336    0.000000   2356.398195
   10    9    0    0    0  1   1   0   0   0  2404.125    7.472434   2476.162086
   10    8    7    0    0  1   1   1   0   0  2478.155    0.000000   2428.013098
   10    8    0    0    0  1   2   0   0   0  2515.289    0.000000   2499.628002
   10    0    0    0    0  2   0   0   0   0  2536.831    0.223712   2586.616143
   11    7    0    0    0  1   1   0   0   0  2686.769    0.682685   2756.436049
   11    8    0    0    0  1   1   0   0   0  2757.958    0.203543   2828.050953
    9    7    0    0    0  2   1   0   0   0  2840.000    0.000000   2897.253090
    9    8    0    0    0  2   1   0   0   0  2897.795    0.000000   2968.867994
   10    9    7    0    0  1   1   1   0   0  2950.363    0.000000   3007.707147
   10    9    8    0    0  1   1   1   0   0  3021.340    0.000000   3079.322051
   10    7    0    0    0  2   1   0   0   0  3086.234    0.000000   3118.161204
   10    8    0    0    0  2   1   0   0   0  3170.392    0.000000   3189.776108
   11    7    0    0    0  1   2   0   0   0  3215.448    0.000000   3287.981111
   11    9    0    0    0  1   1   0   0   0  3269.495    7.659872   3407.745002
   11    8    7    0    0  1   1   1   0   0  3325.894    0.000000   3359.596015
   12    0    0    0    0  1   0   0   0   0  3353.888    1.143539   3521.951505
   11    8    0    0    0  1   2   0   0   0  3356.654    0.000000   3431.210918
   11   10    0    0    0  1   1   0   0   0  3410.138   88.779097   3518.199059
    9    0    0    0    0  3   0   0   0   0  3441.519    0.000000   3548.562043
   10    9    0    0    0  1   2   0   0   0  3534.442    0.000000   3659.016100
   10    9    0    0    0  2   1   0   0   0  3652.872    0.000000   3769.470157
   10    0    0    0    0  3   0   0   0   0  3796.811    0.000000   3879.924214
   11    9    7    0    0  1   1   1   0   0  3800.336    0.000000   3939.290063
   11    9    8    0    0  1   1   1   0   0  3864.940    0.000000   4010.904967
   12    7    0    0    0  1   1   0   0   0  3893.855    0.054143   4053.496566
   11   10    7    0    0  1   1   1   0   0  3944.144    0.000000   4049.744121
   12    8    0    0    0  1   1   0   0   0  3965.641    0.002416   4125.111470
   11   10    8    0    0  1   1   1   0   0  4021.930    0.000000   4121.359024
   11    0    0    0    0  2   0   0   0   0  4283.607    1.926546   4449.781975
   11    9    0    0    0  1   2   0   0   0  4380.276    0.000000   4590.599016
   12    7    0    0    0  1   2   0   0   0  4431.865    0.000000   4585.041628
   12    9    0    0    0  1   1   0   0   0  4502.030    1.435171   4704.805519
   11   10    9    0    0  1   1   1   0   0  4506.644    0.000000   4701.053073
   12    8    7    0    0  1   1   1   0   0  4542.907    0.000000   4656.656532
   12    8    0    0    0  1   2   0   0   0  4574.263    0.000000   4728.271435
   12   10    0    0    0  1   1   0   0   0  4612.948    0.539824   4815.259576
   11   10    0    0    0  1   2   0   0   0  4658.520    0.000000   4811.507130
   11    7    0    0    0  2   1   0   0   0  4802.216    0.000000   4981.327037
   11    8    0    0    0  2   1   0   0   0  4873.629    0.000000   5052.941941
   12    9    7    0    0  1   1   1   0   0  5042.202    0.000000   5236.350580
   12    9    8    0    0  1   1   1   0   0  5107.401    0.000000   5307.965484
   12   10    7    0    0  1   1   1   0   0  5156.285    0.000000   5346.804638
   12   10    8    0    0  1   1   1   0   0  5234.666    0.000000   5418.419541
   11    9    0    0    0  2   1   0   0   0  5360.577    0.000000   5632.635989
   12   11    0    0    0  1   1   0   0   0  5507.265    0.224663   5746.842492
   11   10    0    0    0  2   1   0   0   0  5520.391    0.000000   5743.090047
   12    9    0    0    0  1   2   0   0   0  5647.590    0.000000   5887.659533
   12   10    9    0    0  1   1   1   0   0  5744.234    0.000000   5998.113590
   12   10    0    0    0  1   2   0   0   0  5866.385    0.000000   6108.567647
   12   11    7    0    0  1   1   1   0   0  6035.205    0.000000   6278.387554
   12   11    8    0    0  1   1   1   0   0  6107.213    0.000000   6350.002458
   11    0    0    0    0  3   0   0   0   0  6382.423    0.000000   6674.672963
   12    0    0    0    0  2   0   0   0   0  6550.268    4.939156   7043.903009
   12   11    9    0    0  1   1   1   0   0  6619.015    0.000000   6929.696506
   12   11   10    0    0  1   1   1   0   0  6749.103    0.000000   7040.150564
   12    7    0    0    0  2   1   0   0   0  7087.539    0.000000   7575.448071
   12    8    0    0    0  2   1   0   0   0  7160.143    0.000000   7647.062975
   12   11    0    0    0  1   2   0   0   0  7631.983    0.000000   7971.733480
   12    9    0    0    0  2   1   0   0   0  7696.797    0.000000   8226.757023
   12   10    0    0    0  2   1   0   0   0  7797.161    0.000000   8337.211081
   12   11    0    0    0  2   1   0   0   0  8700.889    0.000000   9268.793997
   12    0    0    0    0  3   0   0   0   0  9589.139    0.000000  10565.854514
--------------------------------------------------------------------------------
                 Analyzing fundamentals for Fermi resonances 
                                    BEWARE!!!
 This is non-trivial.  Do NOT publish anything from the output that follows 
                                    UNLESS 
     you FULLY understand what is going on in this section of the code.
--------------------------------------------------------------------------------
 Analyzing fundamental mode   7*********************************************
 There are no Fermi resonance interactions.
 
 Analyzing fundamental mode   8*********************************************
 There are no Fermi resonance interactions.
 
 Analyzing fundamental mode   9*********************************************
 There are no Fermi resonance interactions.
 
 Analyzing fundamental mode  10*********************************************
 There are no Fermi resonance interactions.
 
 Analyzing fundamental mode  11*********************************************
 There are no Fermi resonance interactions.
 
 Analyzing fundamental mode  12*********************************************
 There are no Fermi resonance interactions.
 
--------------------------------------------------------------------------------
--------------------------------------------------------------------------------
 Dipole moment function written to files dipolex(y,z)
 @CHECKOUT-I, Total execution time (CPU/WALL):         0.03/       0.07 seconds.
